+ 1 0 1 cbr 1000 ------- 1 0.0 5.0 0 0
- 1 0 1 cbr 1000 ------- 1 0.0 5.0 0 0
+ 1 0 1 cbr 1000 ------- 1 0.0 5.0 1 1
+ 1 0 1 cbr 1000 ------- 1 0.0 5.0 2 2
+ 1 0 1 cbr 1000 ------- 1 0.0 5.0 3 3
+ 1 0 1 cbr 1000 ------- 1 0.0 5.0 4 4
+ 1 0 1 cbr 1000 ------- 1 0.0 5.0 5 5
+ 1 0 1 cbr 1000 ------- 1 0.0 5.0 6 6
+ 1 0 1 cbr 1000 ------- 1 0.0 5.0 7 7
+ 1 0 1 cbr 1000 ------- 1 0.0 5.0 8 8
+ 1 0 1 cbr 1000 ------- 1 0.0 5.0 9 9
+ 1 0 1 cbr 1000 ------- 1 0.0 5.0 10 10
+ 1 0 1 cbr 1000 ------- 1 0.0 5.0 11 11
+ 1 0 1 cbr 1000 ------- 1 0.0 5.0 12 12
+ 1 0 1 cbr 1000 ------- 1 0.0 5.0 13 13
+ 1 0 1 cbr 1000 ------- 1 0.0 5.0 14 14
+ 1 0 1 cbr 1000 ------- 1 0.0 5.0 15 15
+ 1 0 1 cbr 1000 ------- 1 0.0 5.0 16 16
+ 1 0 1 cbr 1000 ------- 1 0.0 5.0 17 17
+ 1 0 1 cbr 1000 ------- 1 0.0 5.0 18 18
+ 1 0 1 cbr 1000 ------- 1 0.0 5.0 19 19
+ 1 0 1 cbr 1000 ------- 1 0.0 5.0 20 20
+ 1 0 1 cbr 1000 ------- 1 0.0 5.0 21 21
+ 1 0 1 cbr 1000 ------- 1 0.0 5.0 22 22
+ 1 0 1 cbr 1000 ------- 1 0.0 5.0 23 23
+ 1 0 1 cbr 1000 ------- 1 0.0 5.0 24 24
+ 1 0 1 cbr 1000 ------- 1 0.0 5.0 25 25
+ 1 0 1 cbr 1000 ------- 1 0.0 5.0 26 26
+ 1 0 1 cbr 1000 ------- 1 0.0 5.0 27 27
+ 1 0 1 cbr 1000 ------- 1 0.0 5.0 28 28
+ 1 0 1 cbr 1000 ------- 1 0.0 5.0 29 29
+ 1 0 1 cbr 1000 ------- 1 0.0 5.0 30 30
+ 1 0 1 cbr 1000 ------- 1 0.0 5.0 31 31
+ 1 0 1 cbr 1000 ------- 1 0.0 5.0 32 32
+ 1 0 1 cbr 1000 ------- 1 0.0 5.0 33 33
+ 1 0 1 cbr 1000 ------- 1 0.0 5.0 34 34
+ 1 0 1 cbr 1000 ------- 1 0.0 5.0 35 35
+ 1 0 1 cbr 1000 ------- 1 0.0 5.0 36 36
+ 1 0 1 cbr 1000 ------- 1 0.0 5.0 37 37
+ 1 0 1 cbr 1000 ------- 1 0.0 5.0 38 38
+ 1 0 1 cbr 1000 ------- 1 0.0 5.0 39 39
+ 1 0 1 cbr 1000 ------- 1 0.0 5.0 40 40
+ 1 0 1 cbr 1000 ------- 1 0.0 5.0 41 41
+ 1 0 1 cbr 1000 ------- 1 0.0 5.0 42 42
+ 1 0 1 cbr 1000 ------- 1 0.0 5.0 43 43
+ 1 0 1 cbr 1000 ------- 1 0.0 5.0 44 44
+ 1 0 1 cbr 1000 ------- 1 0.0 5.0 45 45
+ 1 0 1 cbr 1000 ------- 1 0.0 5.0 46 46
+ 1 0 1 cbr 1000 ------- 1 0.0 5.0 47 47
+ 1 0 1 cbr 1000 ------- 1 0.0 5.0 48 48
+ 1 0 1 cbr 1000 ------- 1 0.0 5.0 49 49
+ 1 0 1 cbr 1000 ------- 1 0.0 5.0 50 50
d 1 0 1 cbr 1000 ------- 1 0.0 5.0 50 50
+ 1 0 1 cbr 1000 ------- 1 0.0 5.0 51 51
d 1 0 1 cbr 1000 ------- 1 0.0 5.0 51 51
+ 1 0 1 cbr 1000 ------- 1 0.0 5.0 52 52
d 1 0 1 cbr 1000 ------- 1 0.0 5.0 52 52
+ 1 0 1 cbr 1000 ------- 1 0.0 5.0 53 53
d 1 0 1 cbr 1000 ------- 1 0.0 5.0 53 53
+ 1 0 1 cbr 1000 ------- 1 0.0 5.0 54 54
d 1 0 1 cbr 1000 ------- 1 0.0 5.0 54 54
+ 1 0 1 cbr 1000 ------- 1 0.0 5.0 55 55
d 1 0 1 cbr 1000 ------- 1 0.0 5.0 55 55
+ 1 0 1 cbr 1000 ------- 1 0.0 5.0 56 56
d 1 0 1 cbr 1000 ------- 1 0.0 5.0 56 56
+ 1 0 1 cbr 1000 ------- 1 0.0 5.0 57 57
d 1 0 1 cbr 1000 ------- 1 0.0 5.0 57 57
+ 1 0 1 cbr 1000 ------- 1 0.0 5.0 58 58
d 1 0 1 cbr 1000 ------- 1 0.0 5.0 58 58
+ 1 0 1 cbr 1000 ------- 1 0.0 5.0 59 59
d 1 0 1 cbr 1000 ------- 1 0.0 5.0 59 59
+ 1 0 1 cbr 1000 ------- 1 0.0 5.0 60 60
d 1 0 1 cbr 1000 ------- 1 0.0 5.0 60 60
+ 1 0 1 cbr 1000 ------- 1 0.0 5.0 61 61
d 1 0 1 cbr 1000 ------- 1 0.0 5.0 61 61
+ 1 0 1 cbr 1000 ------- 1 0.0 5.0 62 62
d 1 0 1 cbr 1000 ------- 1 0.0 5.0 62 62
+ 1 0 1 cbr 1000 ------- 1 0.0 5.0 63 63
d 1 0 1 cbr 1000 ------- 1 0.0 5.0 63 63
+ 1 0 1 cbr 1000 ------- 1 0.0 5.0 64 64
d 1 0 1 cbr 1000 ------- 1 0.0 5.0 64 64
+ 1 0 1 cbr 1000 ------- 1 0.0 5.0 65 65
d 1 0 1 cbr 1000 ------- 1 0.0 5.0 65 65
+ 1 0 1 cbr 1000 ------- 1 0.0 5.0 66 66
d 1 0 1 cbr 1000 ------- 1 0.0 5.0 66 66
+ 1 0 1 cbr 1000 ------- 1 0.0 5.0 67 67
d 1 0 1 cbr 1000 ------- 1 0.0 5.0 67 67
+ 1 0 1 cbr 1000 ------- 1 0.0 5.0 68 68
d 1 0 1 cbr 1000 ------- 1 0.0 5.0 68 68
+ 1 0 1 cbr 1000 ------- 1 0.0 5.0 69 69
d 1 0 1 cbr 1000 ------- 1 0.0 5.0 69 69
+ 1 0 1 cbr 1000 ------- 1 0.0 5.0 70 70
d 1 0 1 cbr 1000 ------- 1 0.0 5.0 70 70
+ 1 0 1 cbr 1000 ------- 1 0.0 5.0 71 71
d 1 0 1 cbr 1000 ------- 1 0.0 5.0 71 71
+ 1 0 1 cbr 1000 ------- 1 0.0 5.0 72 72
d 1 0 1 cbr 1000 ------- 1 0.0 5.0 72 72
+ 1 0 1 cbr 1000 ------- 1 0.0 5.0 73 73
d 1 0 1 cbr 1000 ------- 1 0.0 5.0 73 73
+ 1 0 1 cbr 1000 ------- 1 0.0 5.0 74 74
d 1 0 1 cbr 1000 ------- 1 0.0 5.0 74 74
+ 1 0 1 cbr 1000 ------- 1 0.0 5.0 75 75
d 1 0 1 cbr 1000 ------- 1 0.0 5.0 75 75
+ 1 0 1 cbr 1000 ------- 1 0.0 5.0 76 76
d 1 0 1 cbr 1000 ------- 1 0.0 5.0 76 76
+ 1 0 1 cbr 1000 ------- 1 0.0 5.0 77 77
d 1 0 1 cbr 1000 ------- 1 0.0 5.0 77 77
+ 1 0 1 cbr 1000 ------- 1 0.0 5.0 78 78
d 1 0 1 cbr 1000 ------- 1 0.0 5.0 78 78
+ 1 0 1 cbr 1000 ------- 1 0.0 5.0 79 79
d 1 0 1 cbr 1000 ------- 1 0.0 5.0 79 79
+ 1 0 1 cbr 1000 ------- 1 0.0 5.0 80 80
d 1 0 1 cbr 1000 ------- 1 0.0 5.0 80 80
+ 1 0 1 cbr 1000 ------- 1 0.0 5.0 81 81
d 1 0 1 cbr 1000 ------- 1 0.0 5.0 81 81
+ 1 0 1 cbr 1000 ------- 1 0.0 5.0 82 82
d 1 0 1 cbr 1000 ------- 1 0.0 5.0 82 82
+ 1 0 1 cbr 1000 ------- 1 0.0 5.0 83 83
d 1 0 1 cbr 1000 ------- 1 0.0 5.0 83 83
+ 1 0 1 cbr 1000 ------- 1 0.0 5.0 84 84
d 1 0 1 cbr 1000 ------- 1 0.0 5.0 84 84
+ 1 0 1 cbr 1000 ------- 1 0.0 5.0 85 85
d 1 0 1 cbr 1000 ------- 1 0.0 5.0 85 85
+ 1 0 1 cbr 1000 ------- 1 0.0 5.0 86 86
d 1 0 1 cbr 1000 ------- 1 0.0 5.0 86 86
+ 1 0 1 cbr 1000 ------- 1 0.0 5.0 87 87
d 1 0 1 cbr 1000 ------- 1 0.0 5.0 87 87
+ 1 0 1 cbr 1000 ------- 1 0.0 5.0 88 88
d 1 0 1 cbr 1000 ------- 1 0.0 5.0 88 88
+ 1 0 1 cbr 1000 ------- 1 0.0 5.0 89 89
d 1 0 1 cbr 1000 ------- 1 0.0 5.0 89 89
+ 1 0 1 cbr 1000 ------- 1 0.0 5.0 90 90
d 1 0 1 cbr 1000 ------- 1 0.0 5.0 90 90
+ 1 0 1 cbr 1000 ------- 1 0.0 5.0 91 91
d 1 0 1 cbr 1000 ------- 1 0.0 5.0 91 91
+ 1 0 1 cbr 1000 ------- 1 0.0 5.0 92 92
d 1 0 1 cbr 1000 ------- 1 0.0 5.0 92 92
+ 1 0 1 cbr 1000 ------- 1 0.0 5.0 93 93
d 1 0 1 cbr 1000 ------- 1 0.0 5.0 93 93
+ 1 0 1 cbr 1000 ------- 1 0.0 5.0 94 94
d 1 0 1 cbr 1000 ------- 1 0.0 5.0 94 94
+ 1 0 1 cbr 1000 ------- 1 0.0 5.0 95 95
d 1 0 1 cbr 1000 ------- 1 0.0 5.0 95 95
+ 1 0 1 cbr 1000 ------- 1 0.0 5.0 96 96
d 1 0 1 cbr 1000 ------- 1 0.0 5.0 96 96
+ 1 0 1 cbr 1000 ------- 1 0.0 5.0 97 97
d 1 0 1 cbr 1000 ------- 1 0.0 5.0 97 97
+ 1 0 1 cbr 1000 ------- 1 0.0 5.0 98 98
d 1 0 1 cbr 1000 ------- 1 0.0 5.0 98 98
+ 1 0 1 cbr 1000 ------- 1 0.0 5.0 99 99
d 1 0 1 cbr 1000 ------- 1 0.0 5.0 99 99
+ 1 0 1 cbr 1000 ------- 1 0.0 5.0 100 100
d 1 0 1 cbr 1000 ------- 1 0.0 5.0 100 100
+ 1 0 1 cbr 1000 ------- 1 0.0 5.0 101 101
d 1 0 1 cbr 1000 ------- 1 0.0 5.0 101 101
+ 1 0 1 cbr 1000 ------- 1 0.0 5.0 102 102
d 1 0 1 cbr 1000 ------- 1 0.0 5.0 102 102
+ 1 0 1 cbr 1000 ------- 1 0.0 5.0 103 103
d 1 0 1 cbr 1000 ------- 1 0.0 5.0 103 103
+ 1 0 1 cbr 1000 ------- 1 0.0 5.0 104 104
d 1 0 1 cbr 1000 ------- 1 0.0 5.0 104 104
+ 1 0 1 cbr 1000 ------- 1 0.0 5.0 105 105
d 1 0 1 cbr 1000 ------- 1 0.0 5.0 105 105
+ 1 0 1 cbr 1000 ------- 1 0.0 5.0 106 106
d 1 0 1 cbr 1000 ------- 1 0.0 5.0 106 106
+ 1 0 1 cbr 1000 ------- 1 0.0 5.0 107 107
d 1 0 1 cbr 1000 ------- 1 0.0 5.0 107 107
+ 1 0 1 cbr 1000 ------- 1 0.0 5.0 108 108
d 1 0 1 cbr 1000 ------- 1 0.0 5.0 108 108
+ 1 0 1 cbr 1000 ------- 1 0.0 5.0 109 109
d 1 0 1 cbr 1000 ------- 1 0.0 5.0 109 109
+ 1 0 1 cbr 1000 ------- 1 0.0 5.0 110 110
d 1 0 1 cbr 1000 ------- 1 0.0 5.0 110 110
+ 1 0 1 cbr 1000 ------- 1 0.0 5.0 111 111
d 1 0 1 cbr 1000 ------- 1 0.0 5.0 111 111
+ 1 0 1 cbr 1000 ------- 1 0.0 5.0 112 112
d 1 0 1 cbr 1000 ------- 1 0.0 5.0 112 112
+ 1 0 1 cbr 1000 ------- 1 0.0 5.0 113 113
d 1 0 1 cbr 1000 ------- 1 0.0 5.0 113 113
+ 1 0 1 cbr 1000 ------- 1 0.0 5.0 114 114
d 1 0 1 cbr 1000 ------- 1 0.0 5.0 114 114
+ 1 0 1 cbr 1000 ------- 1 0.0 5.0 115 115
d 1 0 1 cbr 1000 ------- 1 0.0 5.0 115 115
+ 1 0 1 cbr 1000 ------- 1 0.0 5.0 116 116
d 1 0 1 cbr 1000 ------- 1 0.0 5.0 116 116
+ 1 0 1 cbr 1000 ------- 1 0.0 5.0 117 117
d 1 0 1 cbr 1000 ------- 1 0.0 5.0 117 117
+ 1 0 1 cbr 1000 ------- 1 0.0 5.0 118 118
d 1 0 1 cbr 1000 ------- 1 0.0 5.0 118 118
+ 1 0 1 cbr 1000 ------- 1 0.0 5.0 119 119
d 1 0 1 cbr 1000 ------- 1 0.0 5.0 119 119
+ 1 0 1 cbr 1000 ------- 1 0.0 5.0 120 120
d 1 0 1 cbr 1000 ------- 1 0.0 5.0 120 120
+ 1 0 1 cbr 1000 ------- 1 0.0 5.0 121 121
d 1 0 1 cbr 1000 ------- 1 0.0 5.0 121 121
+ 1 0 1 cbr 1000 ------- 1 0.0 5.0 122 122
d 1 0 1 cbr 1000 ------- 1 0.0 5.0 122 122
+ 1 0 1 cbr 1000 ------- 1 0.0 5.0 123 123
d 1 0 1 cbr 1000 ------- 1 0.0 5.0 123 123
+ 1 0 1 cbr 1000 ------- 1 0.0 5.0 124 124
d 1 0 1 cbr 1000 ------- 1 0.0 5.0 124 124
+ 1 0 1 cbr 1000 ------- 1 0.0 5.0 125 125
d 1 0 1 cbr 1000 ------- 1 0.0 5.0 125 125
+ 1 0 1 cbr 1000 ------- 1 0.0 5.0 126 126
d 1 0 1 cbr 1000 ------- 1 0.0 5.0 126 126
+ 1 0 1 cbr 1000 ------- 1 0.0 5.0 127 127
d 1 0 1 cbr 1000 ------- 1 0.0 5.0 127 127
+ 1 0 1 cbr 1000 ------- 1 0.0 5.0 128 128
d 1 0 1 cbr 1000 ------- 1 0.0 5.0 128 128
+ 1 0 1 cbr 1000 ------- 1 0.0 5.0 129 129
d 1 0 1 cbr 1000 ------- 1 0.0 5.0 129 129
+ 1 0 1 cbr 1000 ------- 1 0.0 5.0 130 130
d 1 0 1 cbr 1000 ------- 1 0.0 5.0 130 130
+ 1 0 1 cbr 1000 ------- 1 0.0 5.0 131 131
d 1 0 1 cbr 1000 ------- 1 0.0 5.0 131 131
+ 1 0 1 cbr 1000 ------- 1 0.0 5.0 132 132
d 1 0 1 cbr 1000 ------- 1 0.0 5.0 132 132
+ 1 0 1 cbr 1000 ------- 1 0.0 5.0 133 133
d 1 0 1 cbr 1000 ------- 1 0.0 5.0 133 133
+ 1 0 1 cbr 1000 ------- 1 0.0 5.0 134 134
d 1 0 1 cbr 1000 ------- 1 0.0 5.0 134 134
+ 1 0 1 cbr 1000 ------- 1 0.0 5.0 135 135
d 1 0 1 cbr 1000 ------- 1 0.0 5.0 135 135
+ 1 0 1 cbr 1000 ------- 1 0.0 5.0 136 136
d 1 0 1 cbr 1000 ------- 1 0.0 5.0 136 136
+ 1 0 1 cbr 1000 ------- 1 0.0 5.0 137 137
d 1 0 1 cbr 1000 ------- 1 0.0 5.0 137 137
+ 1 0 1 cbr 1000 ------- 1 0.0 5.0 138 138
d 1 0 1 cbr 1000 ------- 1 0.0 5.0 138 138
+ 1 0 1 cbr 1000 ------- 1 0.0 5.0 139 139
d 1 0 1 cbr 1000 ------- 1 0.0 5.0 139 139
+ 1 0 1 cbr 1000 ------- 1 0.0 5.0 140 140
d 1 0 1 cbr 1000 ------- 1 0.0 5.0 140 140
+ 1 0 1 cbr 1000 ------- 1 0.0 5.0 141 141
d 1 0 1 cbr 1000 ------- 1 0.0 5.0 141 141
+ 1 0 1 cbr 1000 ------- 1 0.0 5.0 142 142
d 1 0 1 cbr 1000 ------- 1 0.0 5.0 142 142
+ 1 0 1 cbr 1000 ------- 1 0.0 5.0 143 143
d 1 0 1 cbr 1000 ------- 1 0.0 5.0 143 143
+ 1 0 1 cbr 1000 ------- 1 0.0 5.0 144 144
d 1 0 1 cbr 1000 ------- 1 0.0 5.0 144 144
+ 1 0 1 cbr 1000 ------- 1 0.0 5.0 145 145
d 1 0 1 cbr 1000 ------- 1 0.0 5.0 145 145
+ 1 0 1 cbr 1000 ------- 1 0.0 5.0 146 146
d 1 0 1 cbr 1000 ------- 1 0.0 5.0 146 146
+ 1 0 1 cbr 1000 ------- 1 0.0 5.0 147 147
d 1 0 1 cbr 1000 ------- 1 0.0 5.0 147 147
+ 1 0 1 cbr 1000 ------- 1 0.0 5.0 148 148
d 1 0 1 cbr 1000 ------- 1 0.0 5.0 148 148
+ 1 0 1 cbr 1000 ------- 1 0.0 5.0 149 149
d 1 0 1 cbr 1000 ------- 1 0.0 5.0 149 149
+ 1 0 1 cbr 1000 ------- 1 0.0 5.0 150 150
d 1 0 1 cbr 1000 ------- 1 0.0 5.0 150 150
+ 1 0 1 cbr 1000 ------- 1 0.0 5.0 151 151
d 1 0 1 cbr 1000 ------- 1 0.0 5.0 151 151
+ 1 0 1 cbr 1000 ------- 1 0.0 5.0 152 152
d 1 0 1 cbr 1000 ------- 1 0.0 5.0 152 152
+ 1 0 1 cbr 1000 ------- 1 0.0 5.0 153 153
d 1 0 1 cbr 1000 ------- 1 0.0 5.0 153 153
+ 1 0 1 cbr 1000 ------- 1 0.0 5.0 154 154
d 1 0 1 cbr 1000 ------- 1 0.0 5.0 154 154
+ 1 0 1 cbr 1000 ------- 1 0.0 5.0 155 155
d 1 0 1 cbr 1000 ------- 1 0.0 5.0 155 155
+ 1 0 1 cbr 1000 ------- 1 0.0 5.0 156 156
d 1 0 1 cbr 1000 ------- 1 0.0 5.0 156 156
+ 1 0 1 cbr 1000 ------- 1 0.0 5.0 157 157
d 1 0 1 cbr 1000 ------- 1 0.0 5.0 157 157
+ 1 0 1 cbr 1000 ------- 1 0.0 5.0 158 158
d 1 0 1 cbr 1000 ------- 1 0.0 5.0 158 158
+ 1 0 1 cbr 1000 ------- 1 0.0 5.0 159 159
d 1 0 1 cbr 1000 ------- 1 0.0 5.0 159 159
+ 1 0 1 cbr 1000 ------- 1 0.0 5.0 160 160
d 1 0 1 cbr 1000 ------- 1 0.0 5.0 160 160
+ 1 0 1 cbr 1000 ------- 1 0.0 5.0 161 161
d 1 0 1 cbr 1000 ------- 1 0.0 5.0 161 161
+ 1 0 1 cbr 1000 ------- 1 0.0 5.0 162 162
d 1 0 1 cbr 1000 ------- 1 0.0 5.0 162 162
+ 1 0 1 cbr 1000 ------- 1 0.0 5.0 163 163
d 1 0 1 cbr 1000 ------- 1 0.0 5.0 163 163
+ 1 0 1 cbr 1000 ------- 1 0.0 5.0 164 164
d 1 0 1 cbr 1000 ------- 1 0.0 5.0 164 164
+ 1 0 1 cbr 1000 ------- 1 0.0 5.0 165 165
d 1 0 1 cbr 1000 ------- 1 0.0 5.0 165 165
+ 1 0 1 cbr 1000 ------- 1 0.0 5.0 166 166
d 1 0 1 cbr 1000 ------- 1 0.0 5.0 166 166
+ 1 0 1 cbr 1000 ------- 1 0.0 5.0 167 167
d 1 0 1 cbr 1000 ------- 1 0.0 5.0 167 167
+ 1 0 1 cbr 1000 ------- 1 0.0 5.0 168 168
d 1 0 1 cbr 1000 ------- 1 0.0 5.0 168 168
+ 1 0 1 cbr 1000 ------- 1 0.0 5.0 169 169
d 1 0 1 cbr 1000 ------- 1 0.0 5.0 169 169
+ 1 0 1 cbr 1000 ------- 1 0.0 5.0 170 170
d 1 0 1 cbr 1000 ------- 1 0.0 5.0 170 170
+ 1 0 1 cbr 1000 ------- 1 0.0 5.0 171 171
d 1 0 1 cbr 1000 ------- 1 0.0 5.0 171 171
+ 1 0 1 cbr 1000 ------- 1 0.0 5.0 172 172
d 1 0 1 cbr 1000 ------- 1 0.0 5.0 172 172
+ 1 0 1 cbr 1000 ------- 1 0.0 5.0 173 173
d 1 0 1 cbr 1000 ------- 1 0.0 5.0 173 173
+ 1 0 1 cbr 1000 ------- 1 0.0 5.0 174 174
d 1 0 1 cbr 1000 ------- 1 0.0 5.0 174 174
+ 1 0 1 cbr 1000 ------- 1 0.0 5.0 175 175
d 1 0 1 cbr 1000 ------- 1 0.0 5.0 175 175
+ 1 0 1 cbr 1000 ------- 1 0.0 5.0 176 176
d 1 0 1 cbr 1000 ------- 1 0.0 5.0 176 176
+ 1 0 1 cbr 1000 ------- 1 0.0 5.0 177 177
d 1 0 1 cbr 1000 ------- 1 0.0 5.0 177 177
+ 1 0 1 cbr 1000 ------- 1 0.0 5.0 178 178
d 1 0 1 cbr 1000 ------- 1 0.0 5.0 178 178
+ 1 0 1 cbr 1000 ------- 1 0.0 5.0 179 179
d 1 0 1 cbr 1000 ------- 1 0.0 5.0 179 179
+ 1 0 1 cbr 1000 ------- 1 0.0 5.0 180 180
d 1 0 1 cbr 1000 ------- 1 0.0 5.0 180 180
+ 1 0 1 cbr 1000 ------- 1 0.0 5.0 181 181
d 1 0 1 cbr 1000 ------- 1 0.0 5.0 181 181
+ 1 0 1 cbr 1000 ------- 1 0.0 5.0 182 182
d 1 0 1 cbr 1000 ------- 1 0.0 5.0 182 182
+ 1 0 1 cbr 1000 ------- 1 0.0 5.0 183 183
d 1 0 1 cbr 1000 ------- 1 0.0 5.0 183 183
+ 1 0 1 cbr 1000 ------- 1 0.0 5.0 184 184
d 1 0 1 cbr 1000 ------- 1 0.0 5.0 184 184
+ 1 0 1 cbr 1000 ------- 1 0.0 5.0 185 185
d 1 0 1 cbr 1000 ------- 1 0.0 5.0 185 185
+ 1 0 1 cbr 1000 ------- 1 0.0 5.0 186 186
d 1 0 1 cbr 1000 ------- 1 0.0 5.0 186 186
+ 1 0 1 cbr 1000 ------- 1 0.0 5.0 187 187
d 1 0 1 cbr 1000 ------- 1 0.0 5.0 187 187
+ 1 0 1 cbr 1000 ------- 1 0.0 5.0 188 188
d 1 0 1 cbr 1000 ------- 1 0.0 5.0 188 188
+ 1 0 1 cbr 1000 ------- 1 0.0 5.0 189 189
d 1 0 1 cbr 1000 ------- 1 0.0 5.0 189 189
+ 1 0 1 cbr 1000 ------- 1 0.0 5.0 190 190
d 1 0 1 cbr 1000 ------- 1 0.0 5.0 190 190
+ 1 0 1 cbr 1000 ------- 1 0.0 5.0 191 191
d 1 0 1 cbr 1000 ------- 1 0.0 5.0 191 191
+ 1 0 1 cbr 1000 ------- 1 0.0 5.0 192 192
d 1 0 1 cbr 1000 ------- 1 0.0 5.0 192 192
+ 1 0 1 cbr 1000 ------- 1 0.0 5.0 193 193
d 1 0 1 cbr 1000 ------- 1 0.0 5.0 193 193
+ 1 0 1 cbr 1000 ------- 1 0.0 5.0 194 194
d 1 0 1 cbr 1000 ------- 1 0.0 5.0 194 194
+ 1 0 1 cbr 1000 ------- 1 0.0 5.0 195 195
d 1 0 1 cbr 1000 ------- 1 0.0 5.0 195 195
+ 1 0 1 cbr 1000 ------- 1 0.0 5.0 196 196
d 1 0 1 cbr 1000 ------- 1 0.0 5.0 196 196
+ 1 0 1 cbr 1000 ------- 1 0.0 5.0 197 197
d 1 0 1 cbr 1000 ------- 1 0.0 5.0 197 197
+ 1 0 1 cbr 1000 ------- 1 0.0 5.0 198 198
d 1 0 1 cbr 1000 ------- 1 0.0 5.0 198 198
+ 1 0 1 cbr 1000 ------- 1 0.0 5.0 199 199
d 1 0 1 cbr 1000 ------- 1 0.0 5.0 199 199
+ 1 0 1 cbr 1000 ------- 1 0.0 5.0 200 200
d 1 0 1 cbr 1000 ------- 1 0.0 5.0 200 200
+ 1 0 1 cbr 1000 ------- 1 0.0 5.0 201 201
d 1 0 1 cbr 1000 ------- 1 0.0 5.0 201 201
+ 1 0 1 cbr 1000 ------- 1 0.0 5.0 202 202
d 1 0 1 cbr 1000 ------- 1 0.0 5.0 202 202
+ 1 0 1 cbr 1000 ------- 1 0.0 5.0 203 203
d 1 0 1 cbr 1000 ------- 1 0.0 5.0 203 203
+ 1 0 1 cbr 1000 ------- 1 0.0 5.0 204 204
d 1 0 1 cbr 1000 ------- 1 0.0 5.0 204 204
+ 1 0 1 cbr 1000 ------- 1 0.0 5.0 205 205
d 1 0 1 cbr 1000 ------- 1 0.0 5.0 205 205
+ 1 0 1 cbr 1000 ------- 1 0.0 5.0 206 206
d 1 0 1 cbr 1000 ------- 1 0.0 5.0 206 206
+ 1 0 1 cbr 1000 ------- 1 0.0 5.0 207 207
d 1 0 1 cbr 1000 ------- 1 0.0 5.0 207 207
+ 1 0 1 cbr 1000 ------- 1 0.0 5.0 208 208
d 1 0 1 cbr 1000 ------- 1 0.0 5.0 208 208
+ 1 0 1 cbr 1000 ------- 1 0.0 5.0 209 209
d 1 0 1 cbr 1000 ------- 1 0.0 5.0 209 209
+ 1 0 1 cbr 1000 ------- 1 0.0 5.0 210 210
d 1 0 1 cbr 1000 ------- 1 0.0 5.0 210 210
+ 1 0 1 cbr 1000 ------- 1 0.0 5.0 211 211
d 1 0 1 cbr 1000 ------- 1 0.0 5.0 211 211
+ 1 0 1 cbr 1000 ------- 1 0.0 5.0 212 212
d 1 0 1 cbr 1000 ------- 1 0.0 5.0 212 212
+ 1 0 1 cbr 1000 ------- 1 0.0 5.0 213 213
d 1 0 1 cbr 1000 ------- 1 0.0 5.0 213 213
+ 1 0 1 cbr 1000 ------- 1 0.0 5.0 214 214
d 1 0 1 cbr 1000 ------- 1 0.0 5.0 214 214
+ 1 0 1 cbr 1000 ------- 1 0.0 5.0 215 215
d 1 0 1 cbr 1000 ------- 1 0.0 5.0 215 215
+ 1 0 1 cbr 1000 ------- 1 0.0 5.0 216 216
d 1 0 1 cbr 1000 ------- 1 0.0 5.0 216 216
+ 1 0 1 cbr 1000 ------- 1 0.0 5.0 217 217
d 1 0 1 cbr 1000 ------- 1 0.0 5.0 217 217
+ 1 0 1 cbr 1000 ------- 1 0.0 5.0 218 218
d 1 0 1 cbr 1000 ------- 1 0.0 5.0 218 218
+ 1 0 1 cbr 1000 ------- 1 0.0 5.0 219 219
d 1 0 1 cbr 1000 ------- 1 0.0 5.0 219 219
+ 1 0 1 cbr 1000 ------- 1 0.0 5.0 220 220
d 1 0 1 cbr 1000 ------- 1 0.0 5.0 220 220
+ 1 0 1 cbr 1000 ------- 1 0.0 5.0 221 221
d 1 0 1 cbr 1000 ------- 1 0.0 5.0 221 221
+ 1 0 1 cbr 1000 ------- 1 0.0 5.0 222 222
d 1 0 1 cbr 1000 ------- 1 0.0 5.0 222 222
+ 1 0 1 cbr 1000 ------- 1 0.0 5.0 223 223
d 1 0 1 cbr 1000 ------- 1 0.0 5.0 223 223
+ 1 0 1 cbr 1000 ------- 1 0.0 5.0 224 224
d 1 0 1 cbr 1000 ------- 1 0.0 5.0 224 224
+ 1 0 1 cbr 1000 ------- 1 0.0 5.0 225 225
d 1 0 1 cbr 1000 ------- 1 0.0 5.0 225 225
+ 1 0 1 cbr 1000 ------- 1 0.0 5.0 226 226
d 1 0 1 cbr 1000 ------- 1 0.0 5.0 226 226
+ 1 0 1 cbr 1000 ------- 1 0.0 5.0 227 227
d 1 0 1 cbr 1000 ------- 1 0.0 5.0 227 227
+ 1 0 1 cbr 1000 ------- 1 0.0 5.0 228 228
d 1 0 1 cbr 1000 ------- 1 0.0 5.0 228 228
+ 1 0 1 cbr 1000 ------- 1 0.0 5.0 229 229
d 1 0 1 cbr 1000 ------- 1 0.0 5.0 229 229
+ 1 0 1 cbr 1000 ------- 1 0.0 5.0 230 230
d 1 0 1 cbr 1000 ------- 1 0.0 5.0 230 230
+ 1 0 1 cbr 1000 ------- 1 0.0 5.0 231 231
d 1 0 1 cbr 1000 ------- 1 0.0 5.0 231 231
+ 1 0 1 cbr 1000 ------- 1 0.0 5.0 232 232
d 1 0 1 cbr 1000 ------- 1 0.0 5.0 232 232
+ 1 0 1 cbr 1000 ------- 1 0.0 5.0 233 233
d 1 0 1 cbr 1000 ------- 1 0.0 5.0 233 233
+ 1 0 1 cbr 1000 ------- 1 0.0 5.0 234 234
d 1 0 1 cbr 1000 ------- 1 0.0 5.0 234 234
+ 1 0 1 cbr 1000 ------- 1 0.0 5.0 235 235
d 1 0 1 cbr 1000 ------- 1 0.0 5.0 235 235
+ 1 0 1 cbr 1000 ------- 1 0.0 5.0 236 236
d 1 0 1 cbr 1000 ------- 1 0.0 5.0 236 236
+ 1 0 1 cbr 1000 ------- 1 0.0 5.0 237 237
d 1 0 1 cbr 1000 ------- 1 0.0 5.0 237 237
+ 1 0 1 cbr 1000 ------- 1 0.0 5.0 238 238
d 1 0 1 cbr 1000 ------- 1 0.0 5.0 238 238
+ 1 0 1 cbr 1000 ------- 1 0.0 5.0 239 239
d 1 0 1 cbr 1000 ------- 1 0.0 5.0 239 239
+ 1 0 1 cbr 1000 ------- 1 0.0 5.0 240 240
d 1 0 1 cbr 1000 ------- 1 0.0 5.0 240 240
+ 1 0 1 cbr 1000 ------- 1 0.0 5.0 241 241
d 1 0 1 cbr 1000 ------- 1 0.0 5.0 241 241
+ 1 0 1 cbr 1000 ------- 1 0.0 5.0 242 242
d 1 0 1 cbr 1000 ------- 1 0.0 5.0 242 242
+ 1 0 1 cbr 1000 ------- 1 0.0 5.0 243 243
d 1 0 1 cbr 1000 ------- 1 0.0 5.0 243 243
+ 1 0 1 cbr 1000 ------- 1 0.0 5.0 244 244
d 1 0 1 cbr 1000 ------- 1 0.0 5.0 244 244
+ 1 0 1 cbr 1000 ------- 1 0.0 5.0 245 245
d 1 0 1 cbr 1000 ------- 1 0.0 5.0 245 245
+ 1 0 1 cbr 1000 ------- 1 0.0 5.0 246 246
d 1 0 1 cbr 1000 ------- 1 0.0 5.0 246 246
+ 1 0 1 cbr 1000 ------- 1 0.0 5.0 247 247
d 1 0 1 cbr 1000 ------- 1 0.0 5.0 247 247
+ 1 0 1 cbr 1000 ------- 1 0.0 5.0 248 248
d 1 0 1 cbr 1000 ------- 1 0.0 5.0 248 248
+ 1 0 1 cbr 1000 ------- 1 0.0 5.0 249 249
d 1 0 1 cbr 1000 ------- 1 0.0 5.0 249 249
+ 1 0 1 cbr 1000 ------- 1 0.0 5.0 250 250
d 1 0 1 cbr 1000 ------- 1 0.0 5.0 250 250
+ 1 0 1 cbr 1000 ------- 1 0.0 5.0 251 251
d 1 0 1 cbr 1000 ------- 1 0.0 5.0 251 251
+ 1 0 1 cbr 1000 ------- 1 0.0 5.0 252 252
d 1 0 1 cbr 1000 ------- 1 0.0 5.0 252 252
+ 1 0 1 cbr 1000 ------- 1 0.0 5.0 253 253
d 1 0 1 cbr 1000 ------- 1 0.0 5.0 253 253
+ 1 0 1 cbr 1000 ------- 1 0.0 5.0 254 254
d 1 0 1 cbr 1000 ------- 1 0.0 5.0 254 254
+ 1 0 1 cbr 1000 ------- 1 0.0 5.0 255 255
d 1 0 1 cbr 1000 ------- 1 0.0 5.0 255 255
+ 1 0 1 cbr 1000 ------- 1 0.0 5.0 256 256
d 1 0 1 cbr 1000 ------- 1 0.0 5.0 256 256
+ 1 0 1 cbr 1000 ------- 1 0.0 5.0 257 257
d 1 0 1 cbr 1000 ------- 1 0.0 5.0 257 257
+ 1 0 1 cbr 1000 ------- 1 0.0 5.0 258 258
d 1 0 1 cbr 1000 ------- 1 0.0 5.0 258 258
+ 1 0 1 cbr 1000 ------- 1 0.0 5.0 259 259
d 1 0 1 cbr 1000 ------- 1 0.0 5.0 259 259
+ 1 0 1 cbr 1000 ------- 1 0.0 5.0 260 260
d 1 0 1 cbr 1000 ------- 1 0.0 5.0 260 260
+ 1 0 1 cbr 1000 ------- 1 0.0 5.0 261 261
d 1 0 1 cbr 1000 ------- 1 0.0 5.0 261 261
+ 1 0 1 cbr 1000 ------- 1 0.0 5.0 262 262
d 1 0 1 cbr 1000 ------- 1 0.0 5.0 262 262
+ 1 0 1 cbr 1000 ------- 1 0.0 5.0 263 263
d 1 0 1 cbr 1000 ------- 1 0.0 5.0 263 263
+ 1 0 1 cbr 1000 ------- 1 0.0 5.0 264 264
d 1 0 1 cbr 1000 ------- 1 0.0 5.0 264 264
+ 1 0 1 cbr 1000 ------- 1 0.0 5.0 265 265
d 1 0 1 cbr 1000 ------- 1 0.0 5.0 265 265
+ 1 0 1 cbr 1000 ------- 1 0.0 5.0 266 266
d 1 0 1 cbr 1000 ------- 1 0.0 5.0 266 266
+ 1 0 1 cbr 1000 ------- 1 0.0 5.0 267 267
d 1 0 1 cbr 1000 ------- 1 0.0 5.0 267 267
+ 1 0 1 cbr 1000 ------- 1 0.0 5.0 268 268
d 1 0 1 cbr 1000 ------- 1 0.0 5.0 268 268
+ 1 0 1 cbr 1000 ------- 1 0.0 5.0 269 269
d 1 0 1 cbr 1000 ------- 1 0.0 5.0 269 269
+ 1 0 1 cbr 1000 ------- 1 0.0 5.0 270 270
d 1 0 1 cbr 1000 ------- 1 0.0 5.0 270 270
+ 1 0 1 cbr 1000 ------- 1 0.0 5.0 271 271
d 1 0 1 cbr 1000 ------- 1 0.0 5.0 271 271
+ 1 0 1 cbr 1000 ------- 1 0.0 5.0 272 272
d 1 0 1 cbr 1000 ------- 1 0.0 5.0 272 272
+ 1 0 1 cbr 1000 ------- 1 0.0 5.0 273 273
d 1 0 1 cbr 1000 ------- 1 0.0 5.0 273 273
+ 1 0 1 cbr 1000 ------- 1 0.0 5.0 274 274
d 1 0 1 cbr 1000 ------- 1 0.0 5.0 274 274
+ 1 0 1 cbr 1000 ------- 1 0.0 5.0 275 275
d 1 0 1 cbr 1000 ------- 1 0.0 5.0 275 275
+ 1 0 1 cbr 1000 ------- 1 0.0 5.0 276 276
d 1 0 1 cbr 1000 ------- 1 0.0 5.0 276 276
+ 1 0 1 cbr 1000 ------- 1 0.0 5.0 277 277
d 1 0 1 cbr 1000 ------- 1 0.0 5.0 277 277
+ 1 0 1 cbr 1000 ------- 1 0.0 5.0 278 278
d 1 0 1 cbr 1000 ------- 1 0.0 5.0 278 278
+ 1 0 1 cbr 1000 ------- 1 0.0 5.0 279 279
d 1 0 1 cbr 1000 ------- 1 0.0 5.0 279 279
+ 1 0 1 cbr 1000 ------- 1 0.0 5.0 280 280
d 1 0 1 cbr 1000 ------- 1 0.0 5.0 280 280
+ 1 0 1 cbr 1000 ------- 1 0.0 5.0 281 281
d 1 0 1 cbr 1000 ------- 1 0.0 5.0 281 281
+ 1 0 1 cbr 1000 ------- 1 0.0 5.0 282 282
d 1 0 1 cbr 1000 ------- 1 0.0 5.0 282 282
+ 1 0 1 cbr 1000 ------- 1 0.0 5.0 283 283
d 1 0 1 cbr 1000 ------- 1 0.0 5.0 283 283
+ 1 0 1 cbr 1000 ------- 1 0.0 5.0 284 284
d 1 0 1 cbr 1000 ------- 1 0.0 5.0 284 284
+ 1 0 1 cbr 1000 ------- 1 0.0 5.0 285 285
d 1 0 1 cbr 1000 ------- 1 0.0 5.0 285 285
+ 1 0 1 cbr 1000 ------- 1 0.0 5.0 286 286
d 1 0 1 cbr 1000 ------- 1 0.0 5.0 286 286
+ 1 0 1 cbr 1000 ------- 1 0.0 5.0 287 287
d 1 0 1 cbr 1000 ------- 1 0.0 5.0 287 287
+ 1 0 1 cbr 1000 ------- 1 0.0 5.0 288 288
d 1 0 1 cbr 1000 ------- 1 0.0 5.0 288 288
+ 1 0 1 cbr 1000 ------- 1 0.0 5.0 289 289
d 1 0 1 cbr 1000 ------- 1 0.0 5.0 289 289
+ 1 0 1 cbr 1000 ------- 1 0.0 5.0 290 290
d 1 0 1 cbr 1000 ------- 1 0.0 5.0 290 290
+ 1 0 1 cbr 1000 ------- 1 0.0 5.0 291 291
d 1 0 1 cbr 1000 ------- 1 0.0 5.0 291 291
+ 1 0 1 cbr 1000 ------- 1 0.0 5.0 292 292
d 1 0 1 cbr 1000 ------- 1 0.0 5.0 292 292
+ 1 0 1 cbr 1000 ------- 1 0.0 5.0 293 293
d 1 0 1 cbr 1000 ------- 1 0.0 5.0 293 293
+ 1 0 1 cbr 1000 ------- 1 0.0 5.0 294 294
d 1 0 1 cbr 1000 ------- 1 0.0 5.0 294 294
+ 1 0 1 cbr 1000 ------- 1 0.0 5.0 295 295
d 1 0 1 cbr 1000 ------- 1 0.0 5.0 295 295
+ 1 0 1 cbr 1000 ------- 1 0.0 5.0 296 296
d 1 0 1 cbr 1000 ------- 1 0.0 5.0 296 296
+ 1 0 1 cbr 1000 ------- 1 0.0 5.0 297 297
d 1 0 1 cbr 1000 ------- 1 0.0 5.0 297 297
+ 1 0 1 cbr 1000 ------- 1 0.0 5.0 298 298
d 1 0 1 cbr 1000 ------- 1 0.0 5.0 298 298
+ 1 0 1 cbr 1000 ------- 1 0.0 5.0 299 299
d 1 0 1 cbr 1000 ------- 1 0.0 5.0 299 299
+ 1 0 1 cbr 1000 ------- 1 0.0 5.0 300 300
d 1 0 1 cbr 1000 ------- 1 0.0 5.0 300 300
+ 1 0 1 cbr 1000 ------- 1 0.0 5.0 301 301
d 1 0 1 cbr 1000 ------- 1 0.0 5.0 301 301
+ 1 0 1 cbr 1000 ------- 1 0.0 5.0 302 302
d 1 0 1 cbr 1000 ------- 1 0.0 5.0 302 302
+ 1 0 1 cbr 1000 ------- 1 0.0 5.0 303 303
d 1 0 1 cbr 1000 ------- 1 0.0 5.0 303 303
+ 1 0 1 cbr 1000 ------- 1 0.0 5.0 304 304
d 1 0 1 cbr 1000 ------- 1 0.0 5.0 304 304
+ 1 0 1 cbr 1000 ------- 1 0.0 5.0 305 305
d 1 0 1 cbr 1000 ------- 1 0.0 5.0 305 305
+ 1 0 1 cbr 1000 ------- 1 0.0 5.0 306 306
d 1 0 1 cbr 1000 ------- 1 0.0 5.0 306 306
+ 1 0 1 cbr 1000 ------- 1 0.0 5.0 307 307
d 1 0 1 cbr 1000 ------- 1 0.0 5.0 307 307
+ 1 0 1 cbr 1000 ------- 1 0.0 5.0 308 308
d 1 0 1 cbr 1000 ------- 1 0.0 5.0 308 308
+ 1 0 1 cbr 1000 ------- 1 0.0 5.0 309 309
d 1 0 1 cbr 1000 ------- 1 0.0 5.0 309 309
+ 1 0 1 cbr 1000 ------- 1 0.0 5.0 310 310
d 1 0 1 cbr 1000 ------- 1 0.0 5.0 310 310
+ 1 0 1 cbr 1000 ------- 1 0.0 5.0 311 311
d 1 0 1 cbr 1000 ------- 1 0.0 5.0 311 311
+ 1 0 1 cbr 1000 ------- 1 0.0 5.0 312 312
d 1 0 1 cbr 1000 ------- 1 0.0 5.0 312 312
+ 1 0 1 cbr 1000 ------- 1 0.0 5.0 313 313
d 1 0 1 cbr 1000 ------- 1 0.0 5.0 313 313
+ 1 0 1 cbr 1000 ------- 1 0.0 5.0 314 314
d 1 0 1 cbr 1000 ------- 1 0.0 5.0 314 314
+ 1 0 1 cbr 1000 ------- 1 0.0 5.0 315 315
d 1 0 1 cbr 1000 ------- 1 0.0 5.0 315 315
+ 1 0 1 cbr 1000 ------- 1 0.0 5.0 316 316
d 1 0 1 cbr 1000 ------- 1 0.0 5.0 316 316
+ 1 0 1 cbr 1000 ------- 1 0.0 5.0 317 317
d 1 0 1 cbr 1000 ------- 1 0.0 5.0 317 317
+ 1 0 1 cbr 1000 ------- 1 0.0 5.0 318 318
d 1 0 1 cbr 1000 ------- 1 0.0 5.0 318 318
+ 1 0 1 cbr 1000 ------- 1 0.0 5.0 319 319
d 1 0 1 cbr 1000 ------- 1 0.0 5.0 319 319
+ 1 0 1 cbr 1000 ------- 1 0.0 5.0 320 320
d 1 0 1 cbr 1000 ------- 1 0.0 5.0 320 320
+ 1 0 1 cbr 1000 ------- 1 0.0 5.0 321 321
d 1 0 1 cbr 1000 ------- 1 0.0 5.0 321 321
+ 1 0 1 cbr 1000 ------- 1 0.0 5.0 322 322
d 1 0 1 cbr 1000 ------- 1 0.0 5.0 322 322
+ 1 0 1 cbr 1000 ------- 1 0.0 5.0 323 323
d 1 0 1 cbr 1000 ------- 1 0.0 5.0 323 323
+ 1 0 1 cbr 1000 ------- 1 0.0 5.0 324 324
d 1 0 1 cbr 1000 ------- 1 0.0 5.0 324 324
+ 1 0 1 cbr 1000 ------- 1 0.0 5.0 325 325
d 1 0 1 cbr 1000 ------- 1 0.0 5.0 325 325
+ 1 0 1 cbr 1000 ------- 1 0.0 5.0 326 326
d 1 0 1 cbr 1000 ------- 1 0.0 5.0 326 326
+ 1 0 1 cbr 1000 ------- 1 0.0 5.0 327 327
d 1 0 1 cbr 1000 ------- 1 0.0 5.0 327 327
+ 1 0 1 cbr 1000 ------- 1 0.0 5.0 328 328
d 1 0 1 cbr 1000 ------- 1 0.0 5.0 328 328
+ 1 0 1 cbr 1000 ------- 1 0.0 5.0 329 329
d 1 0 1 cbr 1000 ------- 1 0.0 5.0 329 329
+ 1 0 1 cbr 1000 ------- 1 0.0 5.0 330 330
d 1 0 1 cbr 1000 ------- 1 0.0 5.0 330 330
+ 1 0 1 cbr 1000 ------- 1 0.0 5.0 331 331
d 1 0 1 cbr 1000 ------- 1 0.0 5.0 331 331
+ 1 0 1 cbr 1000 ------- 1 0.0 5.0 332 332
d 1 0 1 cbr 1000 ------- 1 0.0 5.0 332 332
+ 1 0 1 cbr 1000 ------- 1 0.0 5.0 333 333
d 1 0 1 cbr 1000 ------- 1 0.0 5.0 333 333
+ 1 0 1 cbr 1000 ------- 1 0.0 5.0 334 334
d 1 0 1 cbr 1000 ------- 1 0.0 5.0 334 334
+ 1 0 1 cbr 1000 ------- 1 0.0 5.0 335 335
d 1 0 1 cbr 1000 ------- 1 0.0 5.0 335 335
+ 1 0 1 cbr 1000 ------- 1 0.0 5.0 336 336
d 1 0 1 cbr 1000 ------- 1 0.0 5.0 336 336
+ 1 0 1 cbr 1000 ------- 1 0.0 5.0 337 337
d 1 0 1 cbr 1000 ------- 1 0.0 5.0 337 337
+ 1 0 1 cbr 1000 ------- 1 0.0 5.0 338 338
d 1 0 1 cbr 1000 ------- 1 0.0 5.0 338 338
+ 1 0 1 cbr 1000 ------- 1 0.0 5.0 339 339
d 1 0 1 cbr 1000 ------- 1 0.0 5.0 339 339
+ 1 0 1 cbr 1000 ------- 1 0.0 5.0 340 340
d 1 0 1 cbr 1000 ------- 1 0.0 5.0 340 340
+ 1 0 1 cbr 1000 ------- 1 0.0 5.0 341 341
d 1 0 1 cbr 1000 ------- 1 0.0 5.0 341 341
+ 1 0 1 cbr 1000 ------- 1 0.0 5.0 342 342
d 1 0 1 cbr 1000 ------- 1 0.0 5.0 342 342
+ 1 0 1 cbr 1000 ------- 1 0.0 5.0 343 343
d 1 0 1 cbr 1000 ------- 1 0.0 5.0 343 343
+ 1 0 1 cbr 1000 ------- 1 0.0 5.0 344 344
d 1 0 1 cbr 1000 ------- 1 0.0 5.0 344 344
+ 1 0 1 cbr 1000 ------- 1 0.0 5.0 345 345
d 1 0 1 cbr 1000 ------- 1 0.0 5.0 345 345
+ 1 0 1 cbr 1000 ------- 1 0.0 5.0 346 346
d 1 0 1 cbr 1000 ------- 1 0.0 5.0 346 346
+ 1 0 1 cbr 1000 ------- 1 0.0 5.0 347 347
d 1 0 1 cbr 1000 ------- 1 0.0 5.0 347 347
+ 1 0 1 cbr 1000 ------- 1 0.0 5.0 348 348
d 1 0 1 cbr 1000 ------- 1 0.0 5.0 348 348
+ 1 0 1 cbr 1000 ------- 1 0.0 5.0 349 349
d 1 0 1 cbr 1000 ------- 1 0.0 5.0 349 349
+ 1 0 1 cbr 1000 ------- 1 0.0 5.0 350 350
d 1 0 1 cbr 1000 ------- 1 0.0 5.0 350 350
+ 1 0 1 cbr 1000 ------- 1 0.0 5.0 351 351
d 1 0 1 cbr 1000 ------- 1 0.0 5.0 351 351
+ 1 0 1 cbr 1000 ------- 1 0.0 5.0 352 352
d 1 0 1 cbr 1000 ------- 1 0.0 5.0 352 352
+ 1 0 1 cbr 1000 ------- 1 0.0 5.0 353 353
d 1 0 1 cbr 1000 ------- 1 0.0 5.0 353 353
+ 1 0 1 cbr 1000 ------- 1 0.0 5.0 354 354
d 1 0 1 cbr 1000 ------- 1 0.0 5.0 354 354
+ 1 0 1 cbr 1000 ------- 1 0.0 5.0 355 355
d 1 0 1 cbr 1000 ------- 1 0.0 5.0 355 355
+ 1 0 1 cbr 1000 ------- 1 0.0 5.0 356 356
d 1 0 1 cbr 1000 ------- 1 0.0 5.0 356 356
+ 1 0 1 cbr 1000 ------- 1 0.0 5.0 357 357
d 1 0 1 cbr 1000 ------- 1 0.0 5.0 357 357
+ 1 0 1 cbr 1000 ------- 1 0.0 5.0 358 358
d 1 0 1 cbr 1000 ------- 1 0.0 5.0 358 358
+ 1 0 1 cbr 1000 ------- 1 0.0 5.0 359 359
d 1 0 1 cbr 1000 ------- 1 0.0 5.0 359 359
+ 1 0 1 cbr 1000 ------- 1 0.0 5.0 360 360
d 1 0 1 cbr 1000 ------- 1 0.0 5.0 360 360
+ 1 0 1 cbr 1000 ------- 1 0.0 5.0 361 361
d 1 0 1 cbr 1000 ------- 1 0.0 5.0 361 361
+ 1 0 1 cbr 1000 ------- 1 0.0 5.0 362 362
d 1 0 1 cbr 1000 ------- 1 0.0 5.0 362 362
+ 1 0 1 cbr 1000 ------- 1 0.0 5.0 363 363
d 1 0 1 cbr 1000 ------- 1 0.0 5.0 363 363
+ 1 0 1 cbr 1000 ------- 1 0.0 5.0 364 364
d 1 0 1 cbr 1000 ------- 1 0.0 5.0 364 364
+ 1 0 1 cbr 1000 ------- 1 0.0 5.0 365 365
d 1 0 1 cbr 1000 ------- 1 0.0 5.0 365 365
+ 1 0 1 cbr 1000 ------- 1 0.0 5.0 366 366
d 1 0 1 cbr 1000 ------- 1 0.0 5.0 366 366
+ 1 0 1 cbr 1000 ------- 1 0.0 5.0 367 367
d 1 0 1 cbr 1000 ------- 1 0.0 5.0 367 367
+ 1 0 1 cbr 1000 ------- 1 0.0 5.0 368 368
d 1 0 1 cbr 1000 ------- 1 0.0 5.0 368 368
+ 1 0 1 cbr 1000 ------- 1 0.0 5.0 369 369
d 1 0 1 cbr 1000 ------- 1 0.0 5.0 369 369
+ 1 0 1 cbr 1000 ------- 1 0.0 5.0 370 370
d 1 0 1 cbr 1000 ------- 1 0.0 5.0 370 370
+ 1 0 1 cbr 1000 ------- 1 0.0 5.0 371 371
d 1 0 1 cbr 1000 ------- 1 0.0 5.0 371 371
+ 1 0 1 cbr 1000 ------- 1 0.0 5.0 372 372
d 1 0 1 cbr 1000 ------- 1 0.0 5.0 372 372
+ 1 0 1 cbr 1000 ------- 1 0.0 5.0 373 373
d 1 0 1 cbr 1000 ------- 1 0.0 5.0 373 373
+ 1 0 1 cbr 1000 ------- 1 0.0 5.0 374 374
d 1 0 1 cbr 1000 ------- 1 0.0 5.0 374 374
+ 1 0 1 cbr 1000 ------- 1 0.0 5.0 375 375
d 1 0 1 cbr 1000 ------- 1 0.0 5.0 375 375
+ 1 0 1 cbr 1000 ------- 1 0.0 5.0 376 376
d 1 0 1 cbr 1000 ------- 1 0.0 5.0 376 376